# LAMMPS data file written by OVITO
978 atoms

3 atom types

0.0 17.8964006 xlo xhi
0.0 17.9167004 ylo yhi
0.0 35.7930985 zlo zhi

Masses

   1 15.999
   2  1.00
   3  28.085

Atoms # charge

1       1       0.0       5.357360454       -2.106627197       6.926075073
2       2       0.0       4.464390131       -1.727056784       6.626000343
3       2       0.0       5.919526502       -1.841577244       6.226813099
4       1       0.0       3.046710939       8.442444935       -11.37398689
5       2       0.0       3.309428556       8.151079019       -10.47276384
6       2       0.0       2.335816493       -8.769599440       -11.16471221
7       1       0.0       5.958536303       -8.878294285       16.64297578
8       2       0.0       6.775726104       -8.416311802       16.92258840
9       2       0.0       6.060083886       8.925430330       15.66405263
10       1       0.0       -2.756973297       -8.831167416       -14.31002788
11       2       0.0       -3.349474855       8.322742696       -14.59172340
12       2       0.0       -3.394502336       -8.088167076       -14.33327822
13       1       0.0       -3.886635285       0.3704186007       12.49197894
14       2       0.0       -4.753728359       -0.7236089970       8.974836219
15       2       0.0       -4.505450897       0.7246429184       11.81907102
16       1       0.0       1.556010935       -5.781184128       16.22120363
17       2       0.0       2.443877516       -5.477988803       15.95856964
18       2       0.0       1.739937374       -5.811817451       17.21030247
19       1       0.0       -3.739760293       -5.208405025       -11.18798915
20       2       0.0       -3.621952392       -4.981621217       -10.21799071
21       2       0.0       3.644203375       1.974961404       14.86221588
22       1       0.0       -6.915415974       -2.242803475       -9.719208718
23       2       0.0       -7.192718306       -3.176915421       -9.736423294
24       2       0.0       -6.283913598       -2.227037467       -8.991353554
25       1       0.0       4.740972140       -2.947090548       9.448913830
26       2       0.0       2.393021357       -4.633802617       8.174785766
27       2       0.0       4.958554779       -2.663317200       8.495550605
28       1       0.0       -7.849282532       -6.611931509       -15.93700505
29       2       0.0       -7.917995760       -7.594528348       -15.86222205
30       2       0.0       -8.571597281       -6.318468118       -15.33693485
31       1       0.0       -4.468843155       7.023255377       -14.37376210
32       2       0.0       -4.944058038       7.127748696       -13.51010811
33       2       0.0       -3.726499607       6.496890423       -14.10568743
34       1       0.0       5.871917936       -5.595634411       -9.738195077
35       2       0.0       5.804944666       -4.691582333       -9.362290454
36       2       0.0       6.391367874       -6.137824478       -9.053658898
37       1       0.0       2.560651031       -3.731730079       -15.88456098
38       2       0.0       -4.647921514       -5.529740830       -11.35005697
39       2       0.0       2.169698650       -3.289961434       -16.65205536
40       1       0.0       -2.843533805       7.400838108       17.07578906
41       2       0.0       -2.687396104       7.300253532       -17.76531826
42       2       0.0       -2.599059491       6.523055829       16.65866580
43       1       0.0       -6.985204174       -6.044908973       10.22840710
44       2       0.0       -3.793916735       8.032534982       11.60914305
45       2       0.0       -6.700644610       -6.775250675       10.80696391
46       1       0.0       3.808911860       8.216186567       9.994152304
47       2       0.0       3.006475524       8.007569145       10.54514802
48       2       0.0       1.907828459       8.054165488       8.217491949
49       1       0.0       3.679935220       5.114338703       8.060657874
50       2       0.0       2.888995170       4.788122962       7.591996708
51       2       0.0       4.038340086       5.775103934       7.427125608
52       1       0.0       0.2720489975       4.964486965       -9.575949924
53       2       0.0       -1.638804466       4.486180025       -9.562466766
54       2       0.0       -0.3692498247E-01       4.860535699       -10.48494650
55       1       0.0       7.640966784       -6.607985567       -14.59590865
56       2       0.0       7.436856110       -7.498246187       -14.91393583
57       2       0.0       7.355892707       -6.565764053       -13.66704480
58       1       0.0       -8.066621876       6.412775061       -11.21419081
59       2       0.0       -7.489756789       5.768248889       -10.77536420
60       2       0.0       -8.839434142       6.002611774       -11.66805348
61       1       0.0       -6.518821979       -0.9657281717       14.10250341
62       2       0.0       -6.469143425       -0.6479972022       13.21672683
63       2       0.0       -7.543347285       -0.9889091767       14.33706513
64       1       0.0       4.733374269       1.734195643       -15.65536401
65       2       0.0       4.109557288       1.916613210       -14.95587938
66       2       0.0       4.211176339       1.752443782       -16.50344092
67       1       0.0       -0.1644671313       1.029833730       -16.66390536
68       2       0.0       6.744666029       -3.222260649       13.04517408
69       2       0.0       -0.3056335904       0.2980991346       -16.05815210
70       1       0.0       3.173685083       1.949079642       11.18706555
71       2       0.0       2.590542503       1.919411717       10.42862478
72       2       0.0       3.887043676       1.355023099       10.99875138
73       1       0.0       -6.099794694       0.5312174523       6.434784454
74       2       0.0       -5.694564580       0.6117837591       5.527825001
75       2       0.0       -6.420553710       1.453926577       6.739245341
76       1       0.0       -8.503257344       1.643144200       -10.00835271
77       2       0.0       -5.626070057       5.800125790       -9.157938020
78       2       0.0       -8.459160766       1.578507706       -10.96204651
79       1       0.0       0.8964579911       8.015826311       8.260361876
80       2       0.0       0.6536611770       7.521272351       7.454879843
81       2       0.0       0.9163934304       4.756448449       10.10261472
82       1       0.0       7.470426783       -2.182018304       -12.77925977
83       2       0.0       7.055703195       -3.075477900       -12.96508175
84       2       0.0       7.576455270       -2.077119671       -11.77868508
85       1       0.0       7.327104807       3.376627022       11.49659670
86       2       0.0       6.425921204       3.604410449       11.06430483
87       2       0.0       7.069208163       2.892141560       12.26639343
88       1       0.0       2.350469538       -6.355292684       -16.91492981
89       2       0.0       1.711697189       -7.075686467       -16.76893607
90       2       0.0       3.217296056       -6.828781132       -17.18644110
91       1       0.0       -7.109636778       -0.4682507146       -16.83135860
92       2       0.0       -7.259447972       -0.7694860708       -15.91266392
93       2       0.0       -3.116398975       -0.3604374855       -15.77637680
94       1       0.0       -1.913763767       -0.7487699500       9.690873202
95       2       0.0       -2.737967665       -0.4538005488       9.238615532
96       2       0.0       -1.964906533       -1.548023287       11.32253704
97       1       0.0       -8.010779583       -4.788678429       -9.625103475
98       2       0.0       -8.791715344       -5.382686921       -9.480663428
99       2       0.0       -7.454164230       -5.032651757       -8.865911992
100       1       0.0       -8.359710145       5.628641067       15.12597830
101       2       0.0       -8.006801120       6.053935825       14.29159065
102       2       0.0       8.587840401       5.551830129       14.98574490
103       1       0.0       3.177201868       -5.873113391       -12.27031857
104       2       0.0       3.479782967       -6.363587000       -11.48551258
105       2       0.0       2.548333230       -5.210784984       -11.89945681
106       1       0.0       -5.448163698       8.305349385       16.88130599
107       2       0.0       -4.565790305       7.841147879       16.90602104
108       2       0.0       -5.757998400       8.045214822       17.83756830
109       1       0.0       1.362259444       7.372792638       10.83750890
110       2       0.0       1.086993647       7.311237178       9.901844917
111       2       0.0       0.5573960004       7.355946720       11.36712996
112       1       0.0       -7.970754433       5.841755223       -15.55611101
113       2       0.0       -8.034020416       5.252960820       -14.74590605
114       2       0.0       -8.344923389       5.325597192       -16.32233345
115       1       0.0       -1.460540137       2.142613244       -8.006950208
116       2       0.0       -2.044865696       1.606703721       -7.453713361
117       2       0.0       -1.070914291       2.990411680       -7.564190951
118       1       0.0       -0.5380520007       5.814235904       -12.33903452
119       2       0.0       -1.449333233       5.482654426       -12.32312904
120       2       0.0       -0.6647402038       6.790578731       -12.68520442
121       1       0.0       -0.4994515950       -5.733479801       -14.51062196
122       2       0.0       -3.654449528       -6.002985972       7.575876477
123       2       0.0       -0.4668207242       -4.732959660       -14.22461720
124       1       0.0       -7.486702896       7.223570045       10.17270930
125       2       0.0       -7.705014488       8.054134170       9.714164980
126       2       0.0       -8.366430301       6.794451425       10.27264950
127       1       0.0       -5.907848890       2.230993729       -15.26531855
128       2       0.0       -6.817179886       1.953922942       -15.55210268
129       2       0.0       -5.522785382       2.466260841       -16.16816996
130       1       0.0       -1.293434834       1.419935659       -12.63860356
131       2       0.0       -1.146913042       1.192172854       -11.67027674
132       2       0.0       -1.346720448       0.5915993490       -13.22132027
133       1       0.0       -3.876221576       -4.325551559       -8.451191178
134       2       0.0       -3.940646563       -4.646217224       -7.504359871
135       2       0.0       -3.627218693       -3.372114491       -8.440612112
136       1       0.0       6.020485900       8.641051265       -15.48576308
137       2       0.0       5.726017591       8.249401251       -14.59635983
138       2       0.0       6.985498459       8.392410504       -15.58361857
139       1       0.0       2.068740954       0.3575677131       -8.654063216
140       2       0.0       1.759901023       0.5710346061       -7.717011313
141       2       0.0       2.278890200       1.284852969       -8.872941398
142       1       0.0       -1.023174227       0.3060639742       16.64330032
143       2       0.0       -0.8320521934       -0.6327694834       16.62782372
144       2       0.0       -0.7325942410       0.6566758326       17.53117170
145       1       0.0       8.937795610       8.675861773       -12.89300059
146       2       0.0       8.927425386       7.953666179       -12.23238221
147       2       0.0       8.525291044       -8.495846827       -12.41344921
148       1       0.0       3.917919622       2.631280129       -13.00213373
149       2       0.0       3.738540029       1.779122369       -12.52633042
150       2       0.0       3.556503752       3.265735649       -12.33599738
151       1       0.0       -4.191943509       -0.6247218995       -12.36856619
152       2       0.0       -4.979678410       -8.031271001       -9.629053095
153       2       0.0       -3.780813527       -0.1560437593E-01       -13.09602746
154       1       0.0       7.145485125       0.9032407068       -16.63579629
155       2       0.0       6.385571608       1.370252109       -16.28466293
156       2       0.0       6.805848672       0.5647566005E-01       -17.04001787
157       1       0.0       7.887571425       -7.636621291       13.50734480
158       2       0.0       7.958693897       -7.283410224       12.53675728
159       2       0.0       8.039005498       -6.858967269       14.01048034
160       1       0.0       8.325132374       -1.189102898       15.27373602
161       2       0.0       8.787334837       -1.648139027       15.94315577
162       2       0.0       7.912082219       -1.862937809       14.66182082
163       1       0.0       7.936854496       -1.426184115       -10.27235679
164       2       0.0       7.708367845       -1.308472122       -9.339240060
165       2       0.0       -8.940662908       -1.397184177       -10.33415167
166       1       0.0       8.149764849       -6.826995997       11.04673840
167       2       0.0       7.640857108       -6.079329887       10.70669111
168       2       0.0       -8.858324187       -6.595585869       10.72094220
169       1       0.0       4.193409120       -8.249124988       -17.07311481
170       2       0.0       4.736264715       -8.498439368       -17.89386742
171       2       0.0       4.769482893       -8.596647755       -16.31041580
172       1       0.0       2.766218535       -3.618523631       13.25678187
173       2       0.0       2.115959327       -4.219935917       12.73811823
174       2       0.0       3.272362956       -4.139267406       13.88099726
175       1       0.0       0.6337142698       -3.188170253       -13.28142977
176       2       0.0       1.339566314       -3.329070626       -13.96595273
177       2       0.0       1.004869720       -3.323580092       -12.39851710
178       1       0.0       8.894111702       -7.134102616       -8.528961969
179       2       0.0       -8.369655580       -7.906301427       -8.514898943
180       2       0.0       8.217092253       -7.559154872       -7.904077201
181       1       0.0       -5.005561332       -1.322576061       17.66899380
182       2       0.0       -5.093225195       -2.102336596       -17.58257399
183       2       0.0       -5.584151219       -0.6954617106       -17.65927503
184       1       0.0       -2.906615723       -8.301331014       11.40445806
185       2       0.0       -2.110684374       -8.382500552       11.98216624
186       2       0.0       -2.492865873       -8.280242369       10.41879236
187       1       0.0       7.636293978       -3.435690552       13.34069995
188       2       0.0       4.161379266       0.3349174946       17.17141870
189       2       0.0       8.218281039       -3.209155524       12.55809868
190       1       0.0       -7.060208334       -4.956489079       13.46075765
191       2       0.0       -7.358062631       -5.754009243       12.98020212
192       2       0.0       -7.399184145       -4.182016652       12.97856717
193       1       0.0       6.401538996       -8.870338581       -10.37040568
194       2       0.0       6.683407155       8.148493060       -10.03868689
195       2       0.0       5.710809532       -8.609367918       -9.676415360
196       1       0.0       -4.037469166       -3.814140022       10.70576713
197       2       0.0       -2.961709987       -0.8979177870       12.36156278
198       2       0.0       -3.993068732       -3.880853191       11.73430593
199       1       0.0       7.935779750       1.544306432       14.44013767
200       2       0.0       7.725419949       0.6538540633       14.72987587
201       2       0.0       8.865797167       1.757508133       14.53233996
202       1       0.0       6.494365638       -3.926253503       -15.89992552
203       2       0.0       6.034457542       -3.786363461       -15.01829352
204       2       0.0       6.908774298       -4.838274088       -15.79649412
205       1       0.0       8.183222149       -7.558374582       17.62344198
206       2       0.0       8.585320572       -8.408589552       17.32889278
207       2       0.0       8.946430846       -6.992081551       17.66828642
208       1       0.0       3.921115530       6.964301973       -9.060220579
209       2       0.0       3.516753506       4.639915721       -10.66024660
210       2       0.0       4.864170664       6.781363062       -9.181001088
211       1       0.0       0.6406177620       -4.952739228       12.04460612
212       2       0.0       -0.2332474731       -4.931975906       11.46410163
213       2       0.0       0.2289081394       -4.965089089       12.94511775
214       1       0.0       8.704083548       1.064824623       9.777887944
215       2       0.0       8.760956913       1.992277606       9.996025493
216       2       0.0       6.229772057       3.400202430       8.481074052
217       1       0.0       -5.443775798       -8.493611782       14.43059115
218       2       0.0       -4.658014436       -7.907059270       14.33047860
219       2       0.0       -5.334274806       8.889088500       15.24835636
220       1       0.0       -5.971332702       5.235581295       -9.846662958
221       2       0.0       -5.614941841       -8.676521270       -13.20267704
222       2       0.0       -5.585996079       4.371126844       -9.611306707
223       1       0.0       -7.954130424       8.380581631       -8.525963197
224       2       0.0       -8.931861248       8.191228341       -6.916075150
225       2       0.0       -8.099428757       8.010024920       -9.410892470
226       1       0.0       8.762623870       8.186442746       -15.46522729
227       2       0.0       8.751068881       8.423810904       -14.52821484
228       2       0.0       -8.793334493       7.281594780       -15.48032878
229       1       0.0       -3.561381763       7.527590446       -9.974233576
230       2       0.0       -3.671436332       6.906769603       -9.218194949
231       2       0.0       -2.824615838       8.103967414       -9.752127832
232       1       0.0       6.406227051       5.139231069       14.31817090
233       2       0.0       6.435854586       4.166895173       14.27928046
234       2       0.0       5.866316222       5.511241775       13.64730938
235       1       0.0       -2.439914761       -1.012077597       -16.15622891
236       2       0.0       -2.001044923       -1.371658981       -15.34703506
237       2       0.0       0.2653865816       1.710911993       -16.10620782
238       1       0.0       -1.584776286       -5.056006084       10.37178925
239       2       0.0       -1.801486194       -5.389825778       9.469859436
240       2       0.0       -2.399593350       -4.445575140       10.55109517
241       1       0.0       4.391142910       -5.555870851       -6.424191558
242       2       0.0       4.942160607       -4.940273803       -5.924382505
243       2       0.0       3.464432200       -5.587609517       -6.040664912
244       1       0.0       4.539278802       6.221384861       5.804490628
245       2       0.0       4.945409289       6.967400294       5.319748123
246       2       0.0       4.618944653       5.433569589       5.226519315
247       1       0.0       -6.776974586       7.299215698       13.53654255
248       2       0.0       -8.094047568       3.058891940       -17.24195918
249       2       0.0       -6.258563493       8.016284193       14.03550847
250       1       0.0       -4.552092358       2.453164943       -10.65850018
251       2       0.0       -3.682527892       2.757805088       -10.27118325
252       2       0.0       -4.894065597       1.706618316       -10.10864189
253       1       0.0       6.686898687       -1.528821495       -17.44717321
254       2       0.0       7.572117143       -1.868160074       -17.78369796
255       2       0.0       6.504365083       -2.151419803       -16.70286956
256       1       0.0       -0.3545399689       -5.277287755       14.50717808
257       2       0.0       -0.7941213672       -4.397980721       14.83131207
258       2       0.0       0.2959760632       -5.429427901       15.21753141
259       1       0.0       -3.601750678       0.8977175526       -14.69217455
260       2       0.0       -4.488265445       1.318218169       -14.91720533
261       2       0.0       -3.044322488       1.690635862       -14.70261511
262       1       0.0       -5.853648553       7.250838566       -16.55943255
263       2       0.0       -5.301122228       7.268033969       -15.72561870
264       2       0.0       -6.640080155       6.760534308       -16.28792070
265       1       0.0       -2.344695633       3.574363388       -14.02242509
266       2       0.0       3.790377961       -3.641138540       17.58995133
267       2       0.0       -2.043339304       2.881970875       -13.37243472
268       1       0.0       5.386887774       7.712707832       -13.18918304
269       2       0.0       4.808157810       8.252185456       -12.57236544
270       2       0.0       5.946030915       7.199267104       -12.57116234
271       1       0.0       -7.236248261       -4.501762881       -17.27894181
272       2       0.0       -6.402080437       -4.179794071       -16.92524878
273       2       0.0       -7.413654891       -5.397854754       -16.89085599
274       1       0.0       6.744492195       6.119029902       17.03492528
275       2       0.0       6.329817465       7.026998200       17.05313024
276       2       0.0       6.417806847       5.714445125       16.22095864
277       1       0.0       8.049946648       -3.218444640       7.758917728
278       2       0.0       7.258550855       -2.738479562       7.352385205
279       2       0.0       8.522247688       -3.486234864       6.940706998
280       1       0.0       0.5805249260       -1.784922529       12.94165683
281       2       0.0       1.136519196       -2.552341681       13.43023810
282       2       0.0       1.229042592       -1.032945643       12.92698131
283       1       0.0       -4.383576681       7.277246478       11.69761585
284       2       0.0       -5.205028105       7.584231059       11.30274108
285       2       0.0       7.614915055       -4.242902599       9.162869532
286       1       0.0       -4.874267576       -7.199897569       -9.156931728
287       2       0.0       -5.805136233       -5.960473187       -8.231749405
288       2       0.0       -6.424926352       8.315782597       -7.487674164
289       1       0.0       1.188803270       2.245301585       13.00251277
290       2       0.0       0.3916844922       1.943328241       12.50780367
291       2       0.0       1.975285008       2.157823704       12.37574039
292       1       0.0       -5.300299561       2.915175459       17.88707033
293       2       0.0       -4.949526056       6.507107745       -7.214020846
294       2       0.0       -4.412813901       2.543816938       17.63008726
295       1       0.0       -2.039724481       2.253533861       9.643331563
296       2       0.0       -2.366789721       2.553265271       10.51362120
297       2       0.0       -2.735177250       2.509698839       13.69554969
298       1       0.0       -5.967411556       4.206231175       15.75845325
299       2       0.0       -6.879434077       4.427680848       15.44778908
300       2       0.0       -5.384150096       4.920859328       15.43299240
301       1       0.0       -4.276395489       0.1352602489       8.689197848
302       2       0.0       -4.608536689       0.2876605710       7.789880164
303       2       0.0       -3.753951694       1.119540072       13.12269344
304       1       0.0       4.705005408       -4.184000434       -13.71677541
305       2       0.0       3.976163803       -3.881579282       -14.38649920
306       2       0.0       4.273805510       -4.835498768       -13.15004921
307       1       0.0       -8.084172970       -2.959442064       11.80402588
308       2       0.0       -7.999823115       -3.306834192       10.83001600
309       2       0.0       -7.907732702       -1.973818597       11.74813330
310       1       0.0       -0.4351016777       4.700955023       14.61345568
311       2       0.0       -0.9957580896       4.283221427       15.31115137
312       2       0.0       0.4389672042       4.172222499       14.54550363
313       1       0.0       -5.172708300       -8.780107707       9.835624065
314       2       0.0       -1.248521704       -5.844291252       -15.15116820
315       2       0.0       -4.587235561       -8.594373182       10.62511019
316       1       0.0       -8.144170789       -1.479950575       -13.95572591
317       2       0.0       -7.691698547       -1.222646686       -13.14635774
318       2       0.0       8.857420971       -1.830537843       -13.66641492
319       1       0.0       3.066901607       -0.6605070949       13.84307601
320       2       0.0       4.263847410       3.755046085       11.05687493
321       2       0.0       3.685998968       -1.356539274       13.54926499
322       1       0.0       -4.728620455       -7.289577100       -16.66526184
323       2       0.0       -5.228087574       -7.269352861       -15.83472224
324       2       0.0       -5.328033499       -7.674825123       -17.33186925
325       1       0.0       6.687416510       0.3132334213       -8.004942679
326       2       0.0       4.864451168       -2.628969803       -11.97175126
327       2       0.0       7.556021289       0.6976085886       -7.898618700
328       1       0.0       -3.677298753       5.837276331       14.08343634
329       2       0.0       -2.767282422       6.190347734       14.16575727
330       2       0.0       -3.606881261       1.745730324       15.82102064
331       1       0.0       6.077312532       -4.267613041       17.27863295
332       2       0.0       7.014902374       -4.411768707       17.01592982
333       2       0.0       6.188104360       -3.946883821       -17.57490617
334       1       0.0       -7.243901818       -7.623950149       12.57246813
335       2       0.0       -6.629880536       -7.924072818       13.32170917
336       2       0.0       -8.060460730       -8.074816316       12.77439120
337       1       0.0       -1.315336760       7.631689744       -16.30307803
338       2       0.0       -1.794149921       8.049434827       -15.53968823
339       2       0.0       -0.4640847693       8.116428312       -16.29766267
340       1       0.0       0.8987405516       -7.520892940       -10.24248827
341       2       0.0       -0.9043350258       -7.321873199       -8.301733988
342       2       0.0       -0.4222884520       -8.795831907       -9.748921185
343       1       0.0       -2.947363362       4.736794440       11.36341608
344       2       0.0       -3.926392940       4.759656403       11.13574075
345       2       0.0       -2.562403312       5.490887620       10.79717212
346       1       0.0       2.855359106       4.797012988       -14.74787577
347       2       0.0       3.334796077       3.994834764       -14.50977927
348       2       0.0       2.699746834       5.239680883       -13.85319744
349       1       0.0       6.584997171       -6.982590628       -12.18878083
350       2       0.0       6.533043992       -7.877184261       -11.68964464
351       2       0.0       6.247560130       -6.291565245       -11.59601975
352       1       0.0       -1.469128713       3.973564556       16.99017327
353       2       0.0       -1.239890319       2.974705555       16.98435952
354       2       0.0       -1.311883780       4.225480414       -17.86784374
355       1       0.0       0.7547740950       -2.219303880       10.12661901
356       2       0.0       -3.944365070       6.128903923       13.18712111
357       2       0.0       0.7419339332       -2.066805867       11.09865748
358       1       0.0       6.437830457       0.9255969643       -10.99833623
359       2       0.0       7.051739612       0.2671055023       -10.57407003
360       2       0.0       5.465301050       0.5731255912       -10.94158049
361       1       0.0       -0.9828608654       0.4096451201       -10.04326929
362       2       0.0       -1.648085753       -0.1759947684       -9.577114352
363       2       0.0       -0.8151351047       1.182246942       -9.458926169
364       1       0.0       6.488070816       4.616899460       7.515019937
365       2       0.0       5.535651230       4.922033835       7.520665073
366       2       0.0       6.898126737       5.093182913       6.773466794
367       1       0.0       5.532600523       2.262083236       13.54569731
368       2       0.0       5.048919227       1.659745360       12.95590938
369       2       0.0       6.415780957       1.875350407       13.82534456
370       1       0.0       8.887398024       4.641600793       17.89334519
371       2       0.0       8.002951833       4.999298719       17.68313476
372       2       0.0       -8.495515357       4.759105169       17.09554030
373       1       0.0       4.364089271       -6.965042634       11.37721913
374       2       0.0       5.037429652       -6.978743497       10.66666334
375       2       0.0       3.520640233       -6.996229260       10.84703896
376       1       0.0       -6.794159306       -0.6799923098       -11.71445681
377       2       0.0       -6.913953867       -1.199848509       -10.85902897
378       2       0.0       -5.835567496       -0.4983076950       -11.85879474
379       1       0.0       6.986411808       6.059710850       -11.70290733
380       2       0.0       7.144455635       5.425443612       -10.96965797
381       2       0.0       6.876207949       5.494811130       -12.48136026
382       1       0.0       -2.036900354       -2.781710266       17.84630321
383       2       0.0       -2.270215529       -3.543113839       -17.36112185
384       2       0.0       -2.300181338       -1.984460521       -17.29435121